 Generated by Multiwfn
GAUSSIAN              5 MOL ORBITALS     39 PRIMITIVES        3 NUCLEI
  O    1    (CENTRE  1)  -2.80229377  0.00000000  0.12576127  CHARGE =  8.0
  H    2    (CENTRE  2)  -0.98913935  0.00000000 -0.11808899  CHARGE =  1.0
  H    3    (CENTRE  3)  -3.51092217  0.00000000 -1.54241336  CHARGE =  1.0
CENTRE ASSIGNMENTS    1  1  1  1  1  1  1  1  1  1  1  1  1  1  1  1  1  1  1  1
CENTRE ASSIGNMENTS    1  1  1  1  1  2  2  2  2  2  2  2  3  3  3  3  3  3  3
TYPE ASSIGNMENTS      1  1  1  1  1  1  1  2  2  2  3  3  3  4  4  4  2  3  4  5
TYPE ASSIGNMENTS      6  7  8  9 10  1  1  1  1  2  3  4  1  1  1  1  2  3  4
EXPONENTS  0.2266177D+04 0.3408701D+03 0.7736314D+02 0.2147964D+02 0.6658943D+01
EXPONENTS  0.8097598D+00 0.2553077D+00 0.1772150D+02 0.3863551D+01 0.1048092D+01
EXPONENTS  0.1772150D+02 0.3863551D+01 0.1048092D+01 0.1772150D+02 0.3863551D+01
EXPONENTS  0.1048092D+01 0.2764154D+00 0.2764154D+00 0.2764154D+00 0.1200000D+01
EXPONENTS  0.1200000D+01 0.1200000D+01 0.1200000D+01 0.1200000D+01 0.1200000D+01
EXPONENTS  0.1301070D+02 0.1962257D+01 0.4445380D+00 0.1219496D+00 0.8000000D+00
EXPONENTS  0.8000000D+00 0.8000000D+00 0.1301070D+02 0.1962257D+01 0.4445380D+00
EXPONENTS  0.1219496D+00 0.8000000D+00 0.8000000D+00 0.8000000D+00
MO    1     MO 0.0        OCC NO =    2.0000000  ORB. ENERGY =  -19.191943
 -0.12477174D+01 -0.22498426D+01 -0.33111582D+01 -0.32933914D+01 -0.13058679D+01
 -0.23573341D-01  0.34528862D-02 -0.46840367D-02 -0.37135889D-02 -0.16173831D-02
  0.00000000D+00  0.00000000D+00  0.00000000D+00  0.86243509D-02  0.68375410D-02
  0.29779612D-02  0.17259604D-04  0.00000000D+00 -0.70403567D-05 -0.18530536D-02
  0.27078077D-02 -0.85475405D-03  0.00000000D+00 -0.19755061D-02  0.00000000D+00
  0.37845855D-03  0.64203206D-03  0.73091972D-03 -0.33131569D-03 -0.33588568D-02
  0.00000000D+00  0.48094720D-03  0.40667590D-03  0.68990109D-03  0.78541609D-03
 -0.33784983D-03  0.13349925D-02  0.00000000D+00  0.32306762D-02
MO    2     MO 0.0        OCC NO =    2.0000000  ORB. ENERGY =   -1.004839
 -0.34902584D+00 -0.62935184D+00 -0.92623524D+00 -0.92126530D+00 -0.36529237D+00
  0.33425768D+00  0.68683269D-01  0.17953413D+00  0.14233790D+00  0.61992568D-01
  0.00000000D+00  0.00000000D+00  0.00000000D+00 -0.32810155D+00 -0.26012483D+00
 -0.11329243D+00  0.44934693D-03  0.00000000D+00 -0.57642901D-03  0.71257511D-02
 -0.13724006D-01  0.65982553D-02  0.00000000D+00  0.22804202D-02  0.00000000D+00
  0.32623087D-01  0.55343096D-01  0.63005202D-01  0.16227281D-02 -0.37902165D-01
  0.00000000D+00 -0.29762152D-02  0.33430108D-01  0.56712158D-01  0.64563808D-01
  0.16344422D-02  0.22062508D-01  0.00000000D+00  0.31593857D-01
MO    3     MO 0.0        OCC NO =    2.0000000  ORB. ENERGY =   -0.529897
 -0.15659598D-02 -0.28236869D-02 -0.41557013D-02 -0.41334029D-02 -0.16389422D-02
  0.16618799D-02  0.12505298D-02  0.14115448D+01  0.11190982D+01  0.48740196D+00
  0.00000000D+00  0.00000000D+00  0.00000000D+00  0.81069321D+00  0.64273221D+00
  0.27992981D+00  0.51264680D-01  0.00000000D+00  0.29243363D-01  0.37205113D-01
  0.24922722D-03 -0.37454340D-01  0.00000000D+00 -0.44490968D-01  0.00000000D+00
  0.53845544D-01  0.91345712D-01  0.10399229D+00  0.14289009D-01 -0.29992778D-01
  0.00000000D+00  0.16787342D-01 -0.54053758D-01 -0.91698934D-01 -0.10439441D+00
 -0.14138185D-01 -0.72446187D-03  0.00000000D+00 -0.34205464D-01
MO    4     MO 0.0        OCC NO =    2.0000000  ORB. ENERGY =   -0.378114
 -0.13641812D+00 -0.24598464D+00 -0.36202267D+00 -0.36008016D+00 -0.14277596D+00
  0.13156381D+00  0.91369954D-01 -0.88188272D+00 -0.69917254D+00 -0.30451133D+00
  0.00000000D+00  0.00000000D+00  0.00000000D+00  0.15423709D+01  0.12228195D+01
  0.53257581D+00 -0.49853850D-01  0.00000000D+00  0.87089412D-01  0.47681872D-02
  0.22432923D-01 -0.27201111D-01  0.00000000D+00  0.53092257D-01  0.00000000D+00
 -0.32566569D-01 -0.55247216D-01 -0.62896048D-01 -0.93687738D-02  0.17416775D-01
  0.00000000D+00  0.26300690D-01 -0.32293851D-01 -0.54784567D-01 -0.62369346D-01
 -0.90069122D-02 -0.31606352D-01  0.00000000D+00 -0.10761622D-02
MO    5     MO 0.0        OCC NO =    2.0000000  ORB. ENERGY =   -0.304635
  0.00000000D+00  0.00000000D+00  0.00000000D+00  0.00000000D+00  0.00000000D+00
  0.00000000D+00  0.00000000D+00  0.00000000D+00  0.00000000D+00  0.00000000D+00
  0.20596820D+01  0.16329530D+01  0.71120170D+00  0.00000000D+00  0.00000000D+00
  0.00000000D+00  0.00000000D+00  0.14100710D+00  0.00000000D+00  0.00000000D+00
  0.00000000D+00  0.00000000D+00  0.37541133D-01  0.00000000D+00 -0.66774342D-01
  0.00000000D+00  0.00000000D+00  0.00000000D+00  0.00000000D+00  0.00000000D+00
  0.33412843D-01  0.00000000D+00  0.00000000D+00  0.00000000D+00  0.00000000D+00
  0.00000000D+00  0.00000000D+00  0.33726562D-01  0.00000000D+00
END DATA
 THE  HF ENERGY =    -76.276187983304 THE VIRIAL(-V/T)=   2.00000000

$MOSPIN
 0 0 0 0 0 0 0 0 0 0 0 0 0 0 0 0 0 0 0 0 0 0 0 0
$END
