 Generated by Multiwfn
GAUSSIAN              5 MOL ORBITALS     39 PRIMITIVES        3 NUCLEI
  O    1    (CENTRE  1)   2.67320658  0.00000000 -0.12173616  CHARGE =  8.0
  H    2    (CENTRE  2)   3.27453633 -1.44565938  0.79829590  CHARGE =  1.0
  H    3    (CENTRE  3)   3.27453633  1.44565938  0.79829590  CHARGE =  1.0
CENTRE ASSIGNMENTS    1  1  1  1  1  1  1  1  1  1  1  1  1  1  1  1  1  1  1  1
CENTRE ASSIGNMENTS    1  1  1  1  1  2  2  2  2  2  2  2  3  3  3  3  3  3  3
TYPE ASSIGNMENTS      1  1  1  1  1  1  1  2  2  2  3  3  3  4  4  4  2  3  4  5
TYPE ASSIGNMENTS      6  7  8  9 10  1  1  1  1  2  3  4  1  1  1  1  2  3  4
EXPONENTS  0.2266177D+04 0.3408701D+03 0.7736314D+02 0.2147964D+02 0.6658943D+01
EXPONENTS  0.8097598D+00 0.2553077D+00 0.1772150D+02 0.3863551D+01 0.1048092D+01
EXPONENTS  0.1772150D+02 0.3863551D+01 0.1048092D+01 0.1772150D+02 0.3863551D+01
EXPONENTS  0.1048092D+01 0.2764154D+00 0.2764154D+00 0.2764154D+00 0.1200000D+01
EXPONENTS  0.1200000D+01 0.1200000D+01 0.1200000D+01 0.1200000D+01 0.1200000D+01
EXPONENTS  0.1301070D+02 0.1962257D+01 0.4445380D+00 0.1219496D+00 0.8000000D+00
EXPONENTS  0.8000000D+00 0.8000000D+00 0.1301070D+02 0.1962257D+01 0.4445380D+00
EXPONENTS  0.1219496D+00 0.8000000D+00 0.8000000D+00 0.8000000D+00
MO    1     MO 0.0        OCC NO =    2.0000000  ORB. ENERGY =  -19.191492
 -0.12477077D+01 -0.22498252D+01 -0.33111326D+01 -0.32933659D+01 -0.13058578D+01
 -0.23607001D-01  0.34440097D-02 -0.54067508D-02 -0.42865696D-02 -0.18669340D-02
  0.00000000D+00  0.00000000D+00  0.00000000D+00 -0.82723067D-02 -0.65584340D-02
 -0.28564014D-02  0.39616996D-05  0.00000000D+00  0.60613842D-05  0.18488973D-02
 -0.24996401D-02  0.65074281D-03  0.00000000D+00 -0.27342658D-02  0.00000000D+00
  0.40158086D-03  0.68125766D-03  0.77557600D-03 -0.33519587D-03 -0.11649683D-02
  0.27489123D-02 -0.17823967D-02  0.40158086D-03  0.68125766D-03  0.77557600D-03
 -0.33519587D-03 -0.11649683D-02 -0.27489123D-02 -0.17823967D-02
MO    2     MO 0.0        OCC NO =    2.0000000  ORB. ENERGY =   -1.005831
 -0.34894013D+00 -0.62919728D+00 -0.92600776D+00 -0.92103905D+00 -0.36520266D+00
  0.33398523D+00  0.68310188D-01  0.20502230D+00  0.16254538D+00  0.70793555D-01
  0.00000000D+00  0.00000000D+00  0.00000000D+00  0.31368328D+00  0.24869377D+00
  0.10831385D+00  0.33838419D-03  0.00000000D+00  0.51772643D-03 -0.79360517D-02
  0.80677873D-02 -0.13173559D-03  0.00000000D+00  0.17809953D-01  0.00000000D+00
  0.33169391D-01  0.56269868D-01  0.64060284D-01  0.16268973D-02 -0.89353269D-02
  0.34761197D-01 -0.13671014D-01  0.33169391D-01  0.56269868D-01  0.64060284D-01
  0.16268973D-02 -0.89353269D-02 -0.34761197D-01 -0.13671014D-01
MO    3     MO 0.0        OCC NO =    2.0000000  ORB. ENERGY =   -0.531164
  0.00000000D+00  0.00000000D+00  0.00000000D+00  0.00000000D+00  0.00000000D+00
  0.00000000D+00  0.00000000D+00  0.00000000D+00  0.00000000D+00  0.00000000D+00
  0.16284990D+01  0.12911034D+01  0.56231559D+00  0.00000000D+00  0.00000000D+00
  0.00000000D+00  0.00000000D+00  0.58741414D-01  0.00000000D+00  0.00000000D+00
  0.00000000D+00  0.00000000D+00  0.47728751D-01  0.00000000D+00  0.73024793D-01
 -0.54042073D-01 -0.91679112D-01 -0.10437184D+00 -0.14128824D-01  0.16086046D-01
 -0.17684716D-01  0.24611585D-01  0.54042073D-01  0.91679112D-01  0.10437184D+00
  0.14128824D-01 -0.16086046D-01 -0.17684716D-01 -0.24611585D-01
MO    4     MO 0.0        OCC NO =    2.0000000  ORB. ENERGY =   -0.378025
 -0.13634864D+00 -0.24585935D+00 -0.36183829D+00 -0.35989677D+00 -0.14270324D+00
  0.13154007D+00  0.91400591D-01 -0.97283931D+00 -0.77128456D+00 -0.33591835D+00
  0.00000000D+00  0.00000000D+00  0.00000000D+00 -0.14884402D+01 -0.11800622D+01
 -0.51395370D+00 -0.54953201D-01  0.00000000D+00 -0.84078172D-01  0.31214989D-02
  0.19755866D-01 -0.22877364D-01  0.00000000D+00 -0.59331085D-01  0.00000000D+00
 -0.32355535D-01 -0.54889210D-01 -0.62488477D-01 -0.91025463D-02 -0.80026937D-02
 -0.28029344D-01 -0.12244089D-01 -0.32355535D-01 -0.54889210D-01 -0.62488477D-01
 -0.91025463D-02 -0.80026937D-02  0.28029344D-01 -0.12244089D-01
MO    5     MO 0.0        OCC NO =    2.0000000  ORB. ENERGY =   -0.304799
  0.00000000D+00  0.00000000D+00  0.00000000D+00  0.00000000D+00  0.00000000D+00
  0.00000000D+00  0.00000000D+00 -0.17238454D+01 -0.13666958D+01 -0.59523840D+00
  0.00000000D+00  0.00000000D+00  0.00000000D+00  0.11266994D+01  0.89326760D+00
  0.38904575D+00 -0.11801252D+00  0.00000000D+00  0.77132569D-01 -0.35116613D-01
  0.19185040D-10  0.35116613D-01  0.00000000D+00 -0.30776179D-01  0.00000000D+00
  0.00000000D+00  0.00000000D+00  0.00000000D+00  0.00000000D+00 -0.28163279D-01
  0.00000000D+00  0.18407421D-01  0.00000000D+00  0.00000000D+00  0.00000000D+00
  0.00000000D+00 -0.28163279D-01  0.00000000D+00  0.18407421D-01
END DATA
 THE  HF ENERGY =    -76.276219555134 THE VIRIAL(-V/T)=   2.00000000

$MOSPIN
 0 0 0 0 0 0 0 0 0 0 0 0 0 0 0 0 0 0 0 0 0 0 0 0
$END
